<?xml version="1.0" encoding="UTF-8"?>

<!-- generated on 2023/1/25 16:37:30 by SUMO gui Version 0.32.0
<?xml version="1.0" encoding="UTF-8"?>

<configuration xmlns:xsi="http://www.w3.org/2001/XMLSchema-instance" xsi:noNamespaceSchemaLocation="http://sumo.dlr.de/xsd/sumoConfiguration.xsd">

    <input>
        <net-file value="D:\python\2022\sumo_test\data\txmap.net.xml"/>
        <route-files value="D:\python\2022\sumo_test\data\txmap.rou.xml"/>
        <additional-files value="D:\python\2022\sumo_test\data\txmap.det.xml"/>
    </input>

    <output>
        <tripinfo-output value="D:\python\2022\sumo_test\data\txmap-tripinfo.xml"/>
    </output>

    <time>
        <begin value="0"/>
    </time>

    <report>
        <verbose value="true"/>
        <no-step-log value="true"/>
    </report>

</configuration>
-->

<tripinfos xmlns:xsi="http://www.w3.org/2001/XMLSchema-instance" xsi:noNamespaceSchemaLocation="http://sumo.dlr.de/xsd/tripinfo_file.xsd">
</tripinfos>
